# vtk DataFile Version 3.0
FEM Simulation Results
ASCII
DATASET UNSTRUCTURED_GRID
POINTS 11 double
0 0 0
0.1 0 0
0.2 0 0
0.3 0 0
0.4 0 0
0.5 0 0
0.6 0 0
0.7 0 0
0.8 0 0
0.9 0 0
1 0 0
CELLS 10 30
2 0 1
2 1 2
2 2 3
2 3 4
2 4 5
2 5 6
2 6 7
2 7 8
2 8 9
2 9 10
CELL_TYPES 10
3
3
3
3
3
3
3
3
3
3
POINT_DATA 11
SCALARS Temperature double 1
LOOKUP_TABLE default
100
90
80
70
60
50
40
30
20
10
0
