# vtk DataFile Version 3.0
FEM Solution
ASCII
DATASET UNSTRUCTURED_GRID
POINTS 834 double
1 0.1 0
1 0.07707307014 0.05026878059
1 0.1 0.1
1 0.1 0.06666666667
1 0.1 0.03333333333
1 0.07872174928 0.0229180945
0.9754419299 0.1 0.02274238158
1 0.05016655341 0.02996905027
1 0.06666666667 0
1 0.03333333333 0
0.976012305 0.07758456832 0
0.9655172414 0.1 0
1 0.02223847358 0.02521869947
1 0 0
0.9819709943 0.07995411737 0.04974721609
1 0.07864981656 0.0773239825
0.9766861764 0.1 0.07774972074
0.9746120633 0.0891154901 0.06474995666
0.9790312289 0.05685154424 0.04010799233
1 0.04986848528 0.07040279163
1 0.06666666667 0.1
0.9765015569 0.0221041638 0
0.9767276941 0.07776049099 0.1
0.9655172414 0.1 0.1
1 0.03333333333 0.1
1 0.02434116982 0.05030750417
0.9762927943 0.04081837641 0.06651964007
1 0.02215743154 0.07524561576
0.9711611521 0.1 0.05017740314
0.9670373814 0.0705605517 0.02512346719
0.9565131438 0.08410035239 0.04793038689
0.9476200408 0.1 0.0261612962
0.9580624577 0.06353653507 0.05024693438
0.986736635 0.02132383089 0.04168526911
1 0 0.06666666667
1 0 0.03333333333
0.9672518201 0.03176826753 0.03618034106
0.9708426462 0.05031734448 0
0.9513501727 0.04968484762 0.02633852919
0.947249418 0.0752828257 0
0.9310344828 0.1 0
0.9764411825 0 0.02211374775
0.9539775182 0.02055531858 0.0196604545
0.9655172414 0 0
0.9474376851 0.1 0.07574319342
0.9753696182 0.02254296897 0.1
1 0 0.1
0.9673950759 0.07064851303 0.07512346719
0.9599903323 0.05120839028 0.06887997785
0.971162852 0.05052044047 0.1
0.9477473338 0.024981369 0
0.9475857974 0.07583690301 0.1
0.9310344828 0.1 0.1
0.9620421134 0.03337743164 0.08325982004
0.9731467265 0.01932848721 0.06137682097
0.9511466326 0.03302417536 0.06634599838
0.9756390173 0 0.07754829845
0.9345363299 0.1 0.05086759521
0.9139119328 0.1 0.02460859052
0.9397780827 0.06874534225 0.02563692014
0.923495072 0.07893050342 0.08149503482
0.9331958431 0.08145922575 0.06299006965
0.9365404409 0.06926826753 0.04383188686
0.9318553564 0.0629184515 0.07511254409
0.9150184242 0.075 0.03741683935
0.9432040743 0.04737056115 0.05138753656
0.9706537458 0 0.04978403745
0.9408892406 0.02513116339 0.04795261776
0.9329824463 0.04142462108 0.02861126208
0.9343083318 0.04979415639 0
0.9137907556 0.07625737366 0
0.8965517241 0.1 0
0.9244991456 0.02180736459 0.01967993021
0.9459967226 0 0.02492544305
0.9310344828 0 0
0.9136992973 0.1 0.07651439831
0.9276083739 0.04196488619 0.06982878977
0.9477914326 0.02593648688 0.1
0.9655172414 0 0.1
0.9344013764 0.05036210687 0.1
0.9137861904 0.024365657 0
0.9137943008 0.0764017811 0.1
0.8965517241 0.1 0.1
0.935082334 0.02131573921 0.07755527647
0.9471087194 0 0.07502604266
0.8979457953 0.1 0.05060881145
0.8791153112 0.1 0.02530607014
0.9038156486 0.07511137707 0.05658701925
0.8926293042 0.07527367928 0.02480429526
0.892612873 0.07522275414 0.07575719915
0.880837441 0.08142979689 0.06263282423
0.9068312038 0.05049313067 0.02511254409
0.907010977 0.05039128039 0.07511254409
0.9175752073 0.05116851466 0.05196857799
0.9343040356 0 0.0498413649
0.9167128498 0.02388264836 0.06509734943
0.9036356266 0.02513683964 0.04398338982
0.897537492 0.05098626135 0
0.8791484535 0.07532413517 0
0.8620689655 0.1 0
0.8923563255 0.02527367928 0.02473687328
0.9133659755 0 0.02447374657
0.8965517241 0 0
0.8795970056 0.1 0.07536350083
0.9139144521 0.024592698 0.1
0.9310344828 0 0.1
0.8978970385 0.05078256077 0.1
0.8792140674 0.02495837337 0
0.8795904362 0.07549552954 0.1
0.8620689655 0.1 0.1
0.9137049399 0 0.07623472456
0.8926156943 0.02522275414 0.07561736228
0.8631807769 0.1 0.05043785901
0.8557694705 0.07523556427 0.01885946475
0.8447181444 0.1 0.02516547041
0.8436990166 0.07832566196 0.04910156089
0.8654339335 0.07688927246 0.04238227746
0.8820890284 0.0627900473 0.05012434747
0.8628603303 0.07589033896 0.07328085558
0.8713466755 0.05054735856 0.025
0.8739178849 0.04975244552 0.07283899929
0.8819413871 0.03785959378 0.04986843664
0.8976485929 0 0.05092846904
0.8751482569 0.025260948 0.03740519482
0.8805772133 0.01892979689 0.06254877642
0.8471818186 0.06276174982 0.02508663677
0.8621076011 0.04981784071 0
0.8442752148 0.07519744927 0
0.8275862069 0.1 0
0.8787834065 0 0.02482362272
0.8620689655 0 0
0.8449821746 0.1 0.07556639006
0.8792867107 0.02564147471 0.1
0.8965517241 0 0.1
0.8633148607 0.05062412656 0.1
0.8578714933 0.02527367928 0.02497830529
0.8410601461 0.04081534763 0.02505608101
0.8445110393 0.02469385368 0
0.844941761 0.07561069691 0.1
0.8275862069 0.1 0.1
0.8343037531 0.07459654778 0.07918756307
0.8496195803 0.06431790347 0.06305725817
0.8792130395 0 0.07522911619
0.8580088835 0.02522275414 0.07516872741
0.8278978141 0.1 0.05034642945
0.8236837333 0.07528021992 0.06267321473
0.8230169617 0.07497614108 0.02517327355
0.8239662661 0.06581861795 0.04390353573
0.8105934544 0.1 0.02531284026
0.845155859 0.05010845578 0.05
0.845586394 0.04913479898 0.07625339447
0.8579401884 0.02524821671 0.05007351635
0.8624899697 0 0.04958976538
0.8242487988 0.05635701599 0.02513385673
0.8269823885 0.04990456431 0
0.7931034483 0.1 0
0.809720664 0.07528846071 0
0.844396311 0 0.02495661057
0.8275862069 0 0
0.8105209337 0.1 0.07531808301
0.8446343213 0.02506055238 0.1
0.8620689655 0 0.1
0.7931034483 0.1 0.1
0.8282041169 0.05039907086 0.1
0.8274486073 0.02505422789 0.03749700365
0.8098340118 0.02516433291 0
0.8104911375 0.07563944245 0.1
0.8194696526 0.05056043984 0.075
0.8444913182 0 0.07533745481
0.8339806048 0.02517038615 0.08136524698
0.7935119033 0.1 0.05061757676
0.7974138412 0.07497614108 0.03789932672
0.7930850517 0.075 0.06284011818
0.8103927158 0.05025636099 0.05009053834
0.8013157791 0.04995228215 0.02518107668
0.7761591026 0.1 0.02540757768
0.8233268883 0.02528021992 0.06273049396
0.8271841241 0 0.05046098792
0.7925493108 0.05008738421 0
0.7744630681 0.07498566225 0.02205451574
0.7752853022 0.07498325396 0
0.7586206897 0.1 0
0.7776703544 0.05619222733 0.0251702224
0.8097413555 0 0.0249940073
0.7751015834 0.02487297202 0
0.7931034483 0 0
0.773640834 0.07498807054 0.04410903149
0.7759644183 0.1 0.07569976485
0.7586206897 0.1 0.1
0.8103508636 0.02553070701 0.1
0.8275862069 0 0.1
0.7651432151 0.08127880978 0.07542956649
0.7760827721 0.07575126103 0.1
0.7937834462 0.05101242389 0.1
0.7968862889 0.02497614108 0.03747847367
0.7859939361 0.02492455655 0.01873923683
0.7847163079 0.05050621194 0.07518107668
0.7928612387 0.025 0.06283505027
0.8100733078 0 0.07530794719
0.7588415406 0.1 0.05094843606
0.7756491696 0.05 0.05036215336
0.7414266867 0.1 0.02552473032
0.7924567987 0 0.04977587066
0.7540249297 0.0624321725 0.02515936813
0.7581820326 0.049864345 0
0.7410252492 0.07534157994 0
0.724137931 0.1 0
0.758121194 0.03750357136 0.02518107668
0.7753502853 0 0.02467923562
0.7405932184 0.02500714273 0
0.7586206897 0 0
0.7498678269 0.075 0.05031873625
0.7415522339 0.1 0.07569720432
0.724137931 0.1 0.1
0.7415683531 0.07541137054 0.1
0.7756285189 0.02508138162 0.1
0.7931034483 0 0.1
0.7543220119 0.06255761955 0.07515936813
0.7587761969 0.05011523911 0.1
0.7666347306 0.025 0.04995312056
0.7586531825 0.03765553546 0.07518107668
0.7754543779 0 0.07514495024
0.7240864841 0.1 0.05027531915
0.7073354462 0.1 0.02528541415
0.7238854848 0.06295762877 0.025
0.7410254164 0.0501434194 0.05004539007
0.7154161022 0.0752868388 0.05013765957
0.7278683225 0.03791956644 0.02488602194
0.7321830059 0.0252868388 0.04977204388
0.7576202915 0 0.04954408776
0.7235536392 0.05055229409 0
0.7067868504 0.07549597594 0
0.6896551724 0.1 0
0.7171761647 0.01895978322 0.02496377067
0.7410080828 0 0.02515208691
0.7059681948 0.02505158395 0
0.724137931 0 0
0.7070950457 0.1 0.07538799528
0.6896551724 0.1 0.1
0.7241570367 0.06299252407 0.075
0.7069423754 0.07566791362 0.1
0.7245059768 0.05063900181 0.1
0.7416571953 0.02531107093 0.1
0.7586206897 0 0.1
0.6940626104 0.07519910258 0.07519399764
0.7283444914 0.03796292031 0.07488602194
0.7411514037 0 0.07511228038
0.689618217 0.1 0.050539978
0.6730333351 0.1 0.02584087951
0.6977497549 0.05032928062 0.025
0.6898895277 0.0752868388 0.03792043976
0.6746948352 0.07524297069 0.05667773742
0.7067457203 0.0505736776 0.05
0.7084911105 0.02524297069 0.05619988776
0.7233652846 0 0.05011317597
0.6887537896 0.05008488364 0
0.6721237582 0.07502841168 0
0.6551724138 0.1 0
0.6892026444 0.0252868388 0.03757727443
0.7064840068 0 0.0250415194
0.6715412897 0.02487782017 0
0.6896551724 0 0
0.6725023888 0.1 0.07557867826
0.6551724138 0.1 0.1
0.6724947584 0.07544504283 0.1
0.7046873332 0.04418056273 0.07494301097
0.6899378015 0.0505950611 0.1
0.7071724285 0.02522181651 0.1
0.724137931 0 0.1
0.6595001427 0.07519910258 0.07543503509
0.6810301751 0.05039820515 0.075
0.659423178 0.05655152319 0.075
0.7057340852 0.02209028136 0.0752123329
0.7067808372 0 0.07548165483
0.6555291753 0.1 0.05091223875
0.6380246431 0.1 0.025123081
0.6593570756 0.07500160021 0.03795611937
0.6721075754 0.05020070279 0.05
0.6631849758 0.05000320042 0.025
0.6475166561 0.0657663513 0.05959036085
0.6847992152 0.02519910258 0.06262773165
0.6885682553 0 0.05025546329
0.6549043521 0.03758073069 0.05627397876
0.6356101342 0.0749811794 0.04418072171
0.6394423875 0.05624062603 0.02510133101
0.6541536594 0.04930677563 0
0.6362141191 0.07478690875 0.02209036085
0.6368181039 0.07459263809 0
0.6206896552 0.1 0
0.6588625064 0.02500160021 0.03757065775
0.6480346785 0.02483941034 0.01878532887
0.6716595684 0 0.02515454886
0.6372068506 0.02467722047 0
0.6551724138 0 0
0.6379701103 0.1 0.07587007018
0.6250195291 0.08138325561 0.07550133575
0.6206896552 0.1 0.1
0.6380162 0.07548816526 0.1
0.6553146298 0.05022273271 0.1
0.6724777307 0.0253223142 0.1
0.6896551724 0 0.1
0.6359499333 0.0594823257 0.07546800013
0.6423939728 0.04300704447 0.07492229432
0.6549378282 0.02598377622 0.07747629269
0.6720327675 0 0.07510639758
0.6208583564 0.1 0.05046559995
0.6037598045 0.1 0.02543069581
0.6369591355 0.048557255 0.04716669344
0.6118631929 0.0749607586 0.05040532404
0.620143258 0.03759467415 0.025
0.654540037 0 0.0501413155
0.6393807762 0.02380760349 0.06054676078
[...]
POINT_DATA 834
SCALARS solution double 1
LOOKUP_TABLE default
263.15
263.15
263.15
263.15
263.15
263.15
264.6234842
263.15
263.15
263.15
264.5892617
265.2189655
263.15
263.15
264.2317403
263.15
264.5488294
264.6732762
264.4081263
263.15
263.15
264.5599066
264.5463384
265.2189655
263.15
263.15
264.5724323
263.15
264.8803309
265.1277571
265.7592114
266.2927976
265.6662525
263.9458019
263.15
263.15
265.1148908
264.8994412
266.0689896
266.3150349
267.287931
264.5635291
265.9113489
265.2189655
266.3037389
264.6278229
263.15
265.1062954
265.5505801
264.8802289
266.28516
266.2948522
267.287931
265.4274732
264.7611964
266.081202
264.611659
267.0778202
268.315284
266.763315
267.7402957
267.1582494
266.9575735
267.2386786
268.2488946
266.5577555
264.9107753
266.6966456
267.1710532
267.0915001
268.3225547
269.3568966
267.6800513
266.3901966
267.287931
268.3280422
267.4934976
266.282514
265.2189655
267.0859174
268.3228286
268.3223419
269.3568966
267.04506
266.3234768
269.2732523
270.4030813
268.9210611
269.5922417
269.5932276
270.2997535
268.7401278
268.7293414
268.0954876
267.0917579
268.147229
268.9318624
269.2977505
270.4010928
271.4258621
269.6086205
268.3480415
269.3568966
270.3741797
268.3151329
267.287931
269.2761777
270.397156
270.3745738
271.4258621
268.3277036
269.5930583
271.3591534
271.8038318
272.4669113
272.528059
271.223964
270.2246583
271.3783802
270.8691995
270.7149269
270.2335168
269.2910844
270.6411046
270.3153672
272.3190909
271.4235439
272.4934871
273.4948276
270.4229956
271.4258621
272.4510695
270.3927974
269.3568966
271.3511084
271.6777104
272.6863912
272.4793376
272.4534943
273.4948276
273.0917748
272.1728252
270.3972176
271.669467
273.4761312
273.728976
273.7689823
273.712024
274.5143927
272.4406485
272.4148164
271.6735887
271.4006018
273.6950721
273.5310567
275.5637931
274.5667602
272.4862213
273.4948276
274.518744
272.4719407
271.4258621
275.5637931
273.457753
273.5030836
274.5599593
274.5205317
273.9818208
272.4805209
273.1111637
275.5392858
275.3051695
275.5648969
274.5264371
275.0710533
276.5804538
273.7503867
273.5189526
275.5970414
276.6822159
276.6328819
277.6327586
276.4897787
274.5655187
276.643905
275.5637931
276.73155
276.5921349
277.6327586
274.5289482
273.4948276
277.2414071
276.5850337
275.5229932
275.3368227
275.9903638
276.0670215
275.5783257
274.5456015
277.6195076
276.6110498
278.6643988
275.6025921
277.9085042
277.659078
278.688485
279.7017241
277.6627284
276.6289829
278.7144069
277.6327586
278.1579304
278.656866
279.7017241
278.6558988
276.6122889
275.5637931
277.8906793
277.6234282
277.1519162
277.6308091
276.6227373
279.704811
280.7098732
279.7168709
278.688475
280.2250339
279.4779006
279.2190196
277.6927825
279.7367816
280.742789
281.7706897
280.1194301
278.689515
280.7919083
279.7017241
280.7242973
281.7706897
279.7005778
280.7334575
279.6796414
278.6505683
277.6327586
281.5062434
279.4493305
278.6809158
281.772907
282.7679999
281.2850147
281.7566283
282.6683099
280.7452568
280.6405334
279.7480829
281.8247726
282.8225745
283.8396552
281.7978413
280.7609596
282.8575226
281.7706897
282.7998567
283.8396552
282.8003145
280.86876
281.7537319
280.7196543
279.7017241
283.5799914
282.2881895
283.5846093
280.8059549
280.7431498
283.8182495
284.8685214
283.5885755
282.8235455
283.3589015
284.2990006
282.0620471
281.8359047
283.8557389
285.0133919
284.7834568
283.9007804
284.9771529
284.9409138
285.9086207
283.6182496
284.2679193
282.8504259
284.917589
283.8396552
284.8717934
285.6488283
285.9086207
284.869028
283.8311222
282.8013362
281.7706897
284.993004
284.6063616
283.8537303
282.828034
285.8984986
286.9244117
284.9324519
286.4382084
285.9414045
283.8775978
284.7871534
286.208012
285.9778157
286.9512088
287.9775862
285.8292768
284.9262932
286.9897788
285.9086207
286.9396653
287.9775862
286.3966561
286.9335107
285.8852801
284.8628747
283.8396552
287.734963
287.9706971
285.8231617
284.8828343
288.4956351
287.9833866
289.0155941
287.0851663
287.7451656
287.4945443
285.9387032
288.0170378
288.9577925
289.0317176
290.0465517
287.8710208
286.9728855
289.0545492
287.9775862
289.0074937
290.0465517
288.9997857
287.7039528
287.9346123
286.9270164
285.9086207
288.9710141
290.0289648
289.9058824
290.0377321
289.0078835
288.8708425
288.3644303
286.9562682
290.0201976
291.0885127
288.769156
288.761141
287.9955695
290.1007431
291.7285718
291.1131654
292.1155172
290.7937576
291.1313801
291.3699464
290.0676463
289.0395348
291.1221537
290.0465517
291.0770317
292.1155172
291.8454344
291.0675807
291.4646616
290.0442099
289.0234164
287.9775862
290.4579715
290.0465992
290.0489886
289.0249078
292.0789875
292.6232881
292.3808517
292.6205916
293.1412255
291.0955
290.0949489
292.1516122
293.1676249
294.1844828
292.0401254
292.8854369
292.1814443
291.116741
293.1883735
292.1155172
293.1440919
294.1659688
294.1844828
293.616842
293.1419446
292.8915911
292.1325562
291.5907559
291.0790275
290.0465517
294.1924263
292.6343703
291.3407889
291.0900936
294.1395112
294.2139777
294.1920667
295.2164875
294.2813616
294.302852
292.1259813
296.2534483
294.2358887
295.2356031
293.6029853
294.7351766
293.1889209
295.2624698
294.1844828
294.9711982
295.7702154
295.2892184
295.2194392
296.2534483
295.2116738
294.1980039
294.1932067
293.6819522
293.1321545
292.1155172
295.7464177
294.7176417
293.1626942
296.2406883
296.3910762
297.1164618
297.260735
298.3224138
296.2056112
295.5935331
294.200126
297.300404
296.2975229
297.5656649
296.6648047
296.4170564
295.2684478
297.3390348
296.2534483
296.9721886
296.3863701
297.1296616
297.2871346
298.3224138
297.2756761
296.2499273
295.1773222
294.1844828
297.8152243
297.5533009
296.3952902
295.2372795
298.3297077
299.3549672
298.8477683
298.1616961
299.3215161
299.3727635
300.3913793
297.8309258
296.284981
298.9238479
298.3713072
298.6095276
297.3286028
299.3881294
298.3224138
300.3913793
300.3498458
298.4541341
299.347794
298.3005222
297.2634392
296.2534483
300.3957242
299.3957103
298.65826
298.5715536
297.3149951
300.3918137
301.4108979
301.4095326
300.4499122
300.4208427
301.4354553
302.4603448
299.1262481
298.3632059
300.0424312
299.4019251
301.845879
301.4398832
300.3913793
302.4603448
301.5913325
300.3996348
301.422399
300.9322408
300.4215705
299.4855942
300.3824339
299.3377656
298.3224138
302.464446
299.8796681
301.1755458
299.3667256
302.4607213
303.4815504
303.2434298
302.4590294
302.1528554
303.4926123
302.4873021
303.5111683
304.5293103
302.4876111
300.4530698
303.2548404
302.239124
301.4662705
303.2576672
303.5283408
302.859006
302.4603448
304.5293103
303.7121285
303.4891795
302.4552362
302.4714236
301.9630688
301.4187792
300.3913793
303.5427856
303.2539385
301.4385264
305.5498269
304.5218331
303.9168207
304.6439131
304.622984
304.1489708
305.5490802
304.5307022
305.5867135
306.5982759
303.3219814
302.5145009
304.5306036
303.5224754
305.61622
304.5293103
306.5982759
305.5674592
304.4969665
303.5089175
302.8571417
302.4603448
304.5448083
304.548658
303.5204063
306.5950618
307.6271848
306.0804267
306.7327816
306.0202204
307.6201761
308.6672414
305.4332975
306.0499837
306.7375643
306.6195487
307.6622009
306.9991139
305.9877186
304.5663363
306.8193269
305.5911934
307.6759751
306.5982759
308.6556398
308.6672414
307.6373688
306.5801544
305.5814188
304.5293103
309.7041227
308.7972265
307.4792732
307.4755411
306.744251
305.5941693
309.6569318
310.7362069
309.7524991
308.6969461
307.898104
307.3211775
308.9129775
309.7626224
307.4530986
308.1690231
307.9070832
306.6313651
308.9586579
307.6818291
309.7500062
308.6672414
310.7407097
310.7709135
311.7375392
311.7800603
312.8051724
311.7707213
310.7362069
309.696349
308.6625781
307.6299047
306.5982759
310.4836217
309.1905378
308.8104641
307.6451434
310.7280183
310.2447055
311.7768795
310.7785505
309.7184975
309.2018902
308.6852828
311.0370647
309.7482927
311.8228906
310.7362069
313.7963546
312.8165869
314.8741379
315.8407267
312.8390798
313.8448922
312.8051724
312.3258367
312.5712118
313.3457871
313.8364645
312.8257406
311.7650837
310.7400489
309.713845
308.6672414
311.2631206
310.3629612
309.7319083
311.7944787
313.2351629
313.8847318
312.8051724
312.5855941
311.0120774
310.7610341
311.8192238
315.0084868
319.012069
314.6412079
313.7334743
314.9161683
315.9235727
316.9431034
315.7892784
317.977697
316.9942875
315.9165926
314.8741379
314.4446234
315.7378302
313.8368429
313.8807599
314.6371833
313.3442518
312.8077438
311.7630678
310.7362069
312.5549735
311.7777671
315.9302348
314.8741379
314.9193783
313.7371759
313.8885029
312.8453515
317.1014652
317.9744414
320.0002497
321.0810345
319.9956444
321.6483486
323.15
318.8443563
319.2478027
315.4375237
319.1779565
317.976769
316.9431034
317.9959852
316.9431034
317.031037
317.5663944
316.8365137
318.6766436
316.7052658
315.9144813
316.004543
315.7938271
314.9172766
314.8823883
313.7822309
313.8272859
312.8051724
314.9435058
313.8468264
316.5715623
315.9579968
315.0046232
318.097396
318.5530236
319.012069
320.0042058
323.15
321.3917102
321.7358546
321.0810345
323.15
321.1780761
320.5198137
320.0158131
321.7319702
319.163755
320.0138574
319.012069
321.4123878
323.15
323.15
321.7391599
321.0810345
323.15
320.1680538
317.4218836
319.0713535
317.9730079
318.0360843
319.1292781
317.5797415
318.5879207
318.0120865
318.1385013
319.6604471
317.8209931
317.0008151
316.7861887
315.8840167
314.8741379
315.9265972
317.0990462
319.0797073
320.5906308
319.9912089
321.1900526
323.15
323.15
321.7276825
323.15
321.686941
320.3200019
321.6590269
320.0209133
323.15
321.7416924
323.15
323.15
320.6476832
318.5532541
319.9157267
319.1872027
319.2436544
319.0704238
318.2645614
317.9711216
316.9431034
317.9758688
320.3502108
321.9679261
321.3990647
323.15
323.15
321.8744979
321.4144195
323.15
323.15
321.4300549
319.9960646
320.0023464
319.012069
321.7373187
323.15
321.683565
323.15
323.15
321.0810345
323.15
