# vtk DataFile Version 3.0
FEM Simulation Results
ASCII
DATASET UNSTRUCTURED_GRID
POINTS 834 double
1 0.1 0
1 0.0770731 0.0502688
1 0.1 0.1
1 0.1 0.0666667
1 0.1 0.0333333
1 0.0787217 0.0229181
0.975442 0.1 0.0227424
1 0.0501666 0.0299691
1 0.0666667 0
1 0.0333333 0
0.976012 0.0775846 0
0.965517 0.1 0
1 0.0222385 0.0252187
1 0 0
0.981971 0.0799541 0.0497472
1 0.0786498 0.077324
0.976686 0.1 0.0777497
0.974612 0.0891155 0.06475
0.979031 0.0568515 0.040108
1 0.0498685 0.0704028
1 0.0666667 0.1
0.976502 0.0221042 0
0.976728 0.0777605 0.1
0.965517 0.1 0.1
1 0.0333333 0.1
1 0.0243412 0.0503075
0.976293 0.0408184 0.0665196
1 0.0221574 0.0752456
0.971161 0.1 0.0501774
0.967037 0.0705606 0.0251235
0.956513 0.0841004 0.0479304
0.94762 0.1 0.0261613
0.958062 0.0635365 0.0502469
0.986737 0.0213238 0.0416853
1 0 0.0666667
1 0 0.0333333
0.967252 0.0317683 0.0361803
0.970843 0.0503173 0
0.95135 0.0496848 0.0263385
0.947249 0.0752828 0
0.931034 0.1 0
0.976441 0 0.0221137
0.953978 0.0205553 0.0196605
0.965517 0 0
0.947438 0.1 0.0757432
0.97537 0.022543 0.1
1 0 0.1
0.967395 0.0706485 0.0751235
0.95999 0.0512084 0.06888
0.971163 0.0505204 0.1
0.947747 0.0249814 0
0.947586 0.0758369 0.1
0.931034 0.1 0.1
0.962042 0.0333774 0.0832598
0.973147 0.0193285 0.0613768
0.951147 0.0330242 0.066346
0.975639 0 0.0775483
0.934536 0.1 0.0508676
0.913912 0.1 0.0246086
0.939778 0.0687453 0.0256369
0.923495 0.0789305 0.081495
0.933196 0.0814592 0.0629901
0.93654 0.0692683 0.0438319
0.931855 0.0629185 0.0751125
0.915018 0.075 0.0374168
0.943204 0.0473706 0.0513875
0.970654 0 0.049784
0.940889 0.0251312 0.0479526
0.932982 0.0414246 0.0286113
0.934308 0.0497942 0
0.913791 0.0762574 0
0.896552 0.1 0
0.924499 0.0218074 0.0196799
0.945997 0 0.0249254
0.931034 0 0
0.913699 0.1 0.0765144
0.927608 0.0419649 0.0698288
0.947791 0.0259365 0.1
0.965517 0 0.1
0.934401 0.0503621 0.1
0.913786 0.0243657 0
0.913794 0.0764018 0.1
0.896552 0.1 0.1
0.935082 0.0213157 0.0775553
0.947109 0 0.075026
0.897946 0.1 0.0506088
0.879115 0.1 0.0253061
0.903816 0.0751114 0.056587
0.892629 0.0752737 0.0248043
0.892613 0.0752228 0.0757572
0.880837 0.0814298 0.0626328
0.906831 0.0504931 0.0251125
0.907011 0.0503913 0.0751125
0.917575 0.0511685 0.0519686
0.934304 0 0.0498414
0.916713 0.0238826 0.0650973
0.903636 0.0251368 0.0439834
0.897537 0.0509863 0
0.879148 0.0753241 0
0.862069 0.1 0
0.892356 0.0252737 0.0247369
0.913366 0 0.0244737
0.896552 0 0
0.879597 0.1 0.0753635
0.913914 0.0245927 0.1
0.931034 0 0.1
0.897897 0.0507826 0.1
0.879214 0.0249584 0
0.87959 0.0754955 0.1
0.862069 0.1 0.1
0.913705 0 0.0762347
0.892616 0.0252228 0.0756174
0.863181 0.1 0.0504379
0.855769 0.0752356 0.0188595
0.844718 0.1 0.0251655
0.843699 0.0783257 0.0491016
0.865434 0.0768893 0.0423823
0.882089 0.06279 0.0501243
0.86286 0.0758903 0.0732809
0.871347 0.0505474 0.025
0.873918 0.0497524 0.072839
0.881941 0.0378596 0.0498684
0.897649 0 0.0509285
0.875148 0.0252609 0.0374052
0.880577 0.0189298 0.0625488
0.847182 0.0627617 0.0250866
0.862108 0.0498178 0
0.844275 0.0751974 0
0.827586 0.1 0
0.878783 0 0.0248236
0.862069 0 0
0.844982 0.1 0.0755664
0.879287 0.0256415 0.1
0.896552 0 0.1
0.863315 0.0506241 0.1
0.857871 0.0252737 0.0249783
0.84106 0.0408153 0.0250561
0.844511 0.0246939 0
0.844942 0.0756107 0.1
0.827586 0.1 0.1
0.834304 0.0745965 0.0791876
0.84962 0.0643179 0.0630573
0.879213 0 0.0752291
0.858009 0.0252228 0.0751687
0.827898 0.1 0.0503464
0.823684 0.0752802 0.0626732
0.823017 0.0749761 0.0251733
0.823966 0.0658186 0.0439035
0.810593 0.1 0.0253128
0.845156 0.0501085 0.05
0.845586 0.0491348 0.0762534
0.85794 0.0252482 0.0500735
0.86249 0 0.0495898
0.824249 0.056357 0.0251339
0.826982 0.0499046 0
0.793103 0.1 0
0.809721 0.0752885 0
0.844396 0 0.0249566
0.827586 0 0
0.810521 0.1 0.0753181
0.844634 0.0250606 0.1
0.862069 0 0.1
0.793103 0.1 0.1
0.828204 0.0503991 0.1
0.827449 0.0250542 0.037497
0.809834 0.0251643 0
0.810491 0.0756394 0.1
0.81947 0.0505604 0.075
0.844491 0 0.0753375
0.833981 0.0251704 0.0813652
0.793512 0.1 0.0506176
0.797414 0.0749761 0.0378993
0.793085 0.075 0.0628401
0.810393 0.0502564 0.0500905
0.801316 0.0499523 0.0251811
0.776159 0.1 0.0254076
0.823327 0.0252802 0.0627305
0.827184 0 0.050461
0.792549 0.0500874 0
0.774463 0.0749857 0.0220545
0.775285 0.0749833 0
0.758621 0.1 0
0.77767 0.0561922 0.0251702
0.809741 0 0.024994
0.775102 0.024873 0
0.793103 0 0
0.773641 0.0749881 0.044109
0.775964 0.1 0.0756998
0.758621 0.1 0.1
0.810351 0.0255307 0.1
0.827586 0 0.1
0.765143 0.0812788 0.0754296
0.776083 0.0757513 0.1
0.793783 0.0510124 0.1
0.796886 0.0249761 0.0374785
0.785994 0.0249246 0.0187392
0.784716 0.0505062 0.0751811
0.792861 0.025 0.0628351
0.810073 0 0.0753079
0.758842 0.1 0.0509484
0.775649 0.05 0.0503622
0.741427 0.1 0.0255247
0.792457 0 0.0497759
0.754025 0.0624322 0.0251594
0.758182 0.0498643 0
0.741025 0.0753416 0
0.724138 0.1 0
0.758121 0.0375036 0.0251811
0.77535 0 0.0246792
0.740593 0.0250071 0
0.758621 0 0
0.749868 0.075 0.0503187
0.741552 0.1 0.0756972
0.724138 0.1 0.1
0.741568 0.0754114 0.1
0.775629 0.0250814 0.1
0.793103 0 0.1
0.754322 0.0625576 0.0751594
0.758776 0.0501152 0.1
0.766635 0.025 0.0499531
0.758653 0.0376555 0.0751811
0.775454 0 0.075145
0.724086 0.1 0.0502753
0.707335 0.1 0.0252854
0.723885 0.0629576 0.025
0.741025 0.0501434 0.0500454
0.715416 0.0752868 0.0501377
0.727868 0.0379196 0.024886
0.732183 0.0252868 0.049772
0.75762 0 0.0495441
0.723554 0.0505523 0
0.706787 0.075496 0
0.689655 0.1 0
0.717176 0.0189598 0.0249638
0.741008 0 0.0251521
0.705968 0.0250516 0
0.724138 0 0
0.707095 0.1 0.075388
0.689655 0.1 0.1
0.724157 0.0629925 0.075
0.706942 0.0756679 0.1
0.724506 0.050639 0.1
0.741657 0.0253111 0.1
0.758621 0 0.1
0.694063 0.0751991 0.075194
0.728344 0.0379629 0.074886
0.741151 0 0.0751123
0.689618 0.1 0.05054
0.673033 0.1 0.0258409
0.69775 0.0503293 0.025
0.68989 0.0752868 0.0379204
0.674695 0.075243 0.0566777
0.706746 0.0505737 0.05
0.708491 0.025243 0.0561999
0.723365 0 0.0501132
0.688754 0.0500849 0
0.672124 0.0750284 0
0.655172 0.1 0
0.689203 0.0252868 0.0375773
0.706484 0 0.0250415
0.671541 0.0248778 0
0.689655 0 0
0.672502 0.1 0.0755787
0.655172 0.1 0.1
0.672495 0.075445 0.1
0.704687 0.0441806 0.074943
0.689938 0.0505951 0.1
0.707172 0.0252218 0.1
0.724138 0 0.1
0.6595 0.0751991 0.075435
0.68103 0.0503982 0.075
0.659423 0.0565515 0.075
0.705734 0.0220903 0.0752123
0.706781 0 0.0754817
0.655529 0.1 0.0509122
0.638025 0.1 0.0251231
0.659357 0.0750016 0.0379561
0.672108 0.0502007 0.05
0.663185 0.0500032 0.025
0.647517 0.0657664 0.0595904
0.684799 0.0251991 0.0626277
0.688568 0 0.0502555
0.654904 0.0375807 0.056274
0.63561 0.0749812 0.0441807
0.639442 0.0562406 0.0251013
0.654154 0.0493068 0
0.636214 0.0747869 0.0220904
0.636818 0.0745926 0
0.62069 0.1 0
0.658863 0.0250016 0.0375707
0.648035 0.0248394 0.0187853
0.67166 0 0.0251545
0.637207 0.0246772 0
0.655172 0 0
0.63797 0.1 0.0758701
0.62502 0.0813833 0.0755013
0.62069 0.1 0.1
0.638016 0.0754882 0.1
0.655315 0.0502227 0.1
0.672478 0.0253223 0.1
0.689655 0 0.1
0.63595 0.0594823 0.075468
0.642394 0.043007 0.0749223
0.654938 0.0259838 0.0774763
0.672033 0 0.0751064
0.620858 0.1 0.0504656
0.60376 0.1 0.0254307
0.636959 0.0485573 0.0471667
0.611863 0.0749608 0.0504053
0.620143 0.0375947 0.025
0.65454 0 0.0501413
0.639381 0.0238076 0.0605468
0.6157 0.0624781 0.0252027
0.619536 0.0499953 0
0.603313 0.0753801 0
0.586207 0.1 0
0.622012 0.0215498 0.0333056
0.637062 0 0.024824
0.60267 0.0252678 0
0.62069 0 0
0.603506 0.1 0.0755977
0.586207 0.1 0.1
0.612556 0.0612901 0.0765177
0.603608 0.0756564 0.1
0.621079 0.0505363 0.1
0.638119 0.0251005 0.1
0.655172 0 0.1
0.590251 0.0751595 0.0252027
0.586322 0.0628282 0.0752652
0.622114 0.0292595 0.0718392
0.637786 0 0.0750959
0.577573 0.075 0.0506705
0.58611 0.1 0.0508106
0.568907 0.1 0.0251885
0.601081 0.0495423 0.0484591
0.590081 0.0374708 0.0250014
0.594258 0.0247057 0.0512299
0.620188 0 0.0494752
0.585549 0.0499416 0
0.56987 0.0781633 0.0252112
0.568638 0.0753582 0
0.551724 0.1 0
0.587983 0.0156234 0.0312631
0.602952 0 0.0248922
0.568258 0.0248824 0
0.586207 0 0
0.569042 0.1 0.0754529
0.551724 0.1 0.1
0.56917 0.0757361 0.1
0.590767 0.0380244 0.0750014
0.586923 0.0510489 0.1
0.603716 0.0256732 0.1
0.62069 0 0.1
0.56965 0.0554645 0.0264242
0.552017 0.0813508 0.0628956
0.554069 0.0732838 0.0420488
0.551871 0.0627015 0.0752652
0.569035 0.05 0.0505304
0.571319 0.050363 0.0751333
0.579759 0.0190122 0.0752227
0.603229 0 0.0754363
0.552163 0.1 0.0505259
0.534358 0.1 0.0253153
0.573014 0.0312468 0.037634
0.573148 0.025 0.056496
0.585907 0 0.0505349
0.550821 0.0499116 0
0.52369 0.084427 0.0157848
0.533947 0.0750101 0
0.517241 0.1 0
0.539271 0.0675734 0.0234671
0.533644 0.0763524 0.0545672
0.529668 0.0424178 0.0241683
0.551373 0.0361226 0.0254561
0.568508 0 0.0249254
0.533797 0.0249874 0
0.551724 0 0
0.534549 0.1 0.0755678
0.517241 0.1 0.1
0.521743 0.0752015 0.0815272
0.534707 0.0754031 0.1
0.528089 0.0564681 0.0751867
0.551763 0.0500182 0.1
0.568776 0.0250204 0.1
0.586207 0 0.1
0.544867 0.0496003 0.0531319
0.551723 0.0375091 0.0814946
0.551684 0.025 0.0629892
0.568752 0 0.0754441
0.51785 0.1 0.0505968
0.508779 0.075 0.0630544
0.512819 0.080584 0.0381446
0.508823 0.064524 0.0255483
0.500146 0.1 0.0254988
0.534242 0.0187468 0.0377671
0.550918 0 0.0502166
0.51664 0.0501937 0
0.499706 0.0754161 0
0.482759 0.1 0
0.518498 0.0473932 0.0479643
0.504409 0.0418691 0.0221381
0.516143 0.0198686 0.0285226
0.533888 0 0.0252446
0.49936 0.0249402 0
0.517241 0 0
0.500098 0.1 0.0756759
0.483067 0.0814664 0.0629439
0.482759 0.1 0.1
0.492219 0.0542355 0.0499805
0.500134 0.0754161 0.1
0.504307 0.0502347 0.0751082
0.516957 0.0506707 0.1
0.525987 0.0375367 0.0752165
0.534516 0.0250734 0.1
0.551724 0 0.1
0.482626 0.0629328 0.075
0.508594 0.0248688 0.0633557
0.530154 0.025 0.0629355
0.534332 0 0.075448
0.483508 0.1 0.0508877
0.482267 0.0626715 0.0188747
0.482632 0.0752247 0.0377494
0.465559 0.1 0.0250368
0.481144 0.0402771 0.0274965
0.480786 0.0299712 0.0625637
0.517067 0 0.0502691
[...]
POINT_DATA 834
SCALARS Temperature double 1
LOOKUP_TABLE default
263.15
263.15
263.15
263.15
263.15
263.15
264.77
263.15
263.15
263.15
264.86
265.181
263.15
263.15
264.107
263.15
264.145
264.746
264.331
263.15
263.15
264.935
264.197
264.657
263.15
263.15
264.243
263.15
264.805
265.212
265.839
266.367
265.615
263.989
263.15
263.15
265.571
265.121
266.107
266.677
267.11
264.699
266.263
265.542
266.327
264.338
263.15
265.291
265.604
264.606
266.579
266.045
266.471
265.304
264.75
266.112
264.594
267.395
268.095
266.727
267.258
266.711
266.826
266.907
267.697
266.568
265.318
266.808
267.365
267.258
268.244
268.955
268.041
266.806
267.73
268.078
267.4
265.885
264.667
266.539
268.949
268.149
269.056
267.043
266.276
268.958
269.784
268.43
269.209
269.191
269.854
268.624
268.617
267.932
267.37
267.901
269.033
269.102
269.857
270.784
269.847
268.832
269.503
269.53
267.906
266.821
268.726
270.616
269.431
270.569
268.1
269.658
270.885
271.524
272.027
272.29
270.989
269.727
270.79
270.711
270.455
270.225
269.452
270.737
270.134
272.096
271.064
272.444
272.772
270.854
271.915
271.965
269.792
268.959
270.679
271.861
272.636
272.54
272.095
272.919
272.58
271.74
270.009
271.404
273.115
273.253
273.604
273.424
274.015
272.17
271.955
271.565
271.666
273.919
273.97
275.251
274.666
272.595
273.223
273.614
271.749
270.571
275.406
273.265
273.414
274.671
273.618
273.418
271.916
272.761
274.946
274.98
274.997
274.353
274.758
275.989
273.676
273.529
275.577
276.338
276.832
277.477
276.493
274.959
277.341
275.817
276.429
276.261
277.738
274.242
273.035
277.061
276.806
274.973
275.099
276.173
275.538
275.351
274.439
277.315
276.375
278.541
275.996
278.23
278.207
279.007
279.663
277.978
277.264
279.489
277.789
277.936
278.278
280.234
278.266
276.687
274.927
277.962
277.301
277.242
277.567
276.41
279.382
280.474
279.883
278.657
280.063
279.646
279.46
278.056
280.444
280.576
282.038
280.692
279.338
281.752
280.166
281.04
282.172
279.617
280.966
279.502
278.544
277.579
281.367
279.383
279.152
281.694
282.535
281.532
281.808
282.758
280.815
280.957
280.016
282.396
283.422
284.397
282.349
281.684
283.583
282.593
283.029
283.864
282.954
280.935
281.796
280.606
280.242
283.692
282.465
283.62
280.766
281.223
283.842
284.862
283.668
282.911
283.819
284.549
282.56
282.545
283.966
285.336
285.232
284.373
285.164
285.706
286.589
283.949
284.875
283.848
285.779
284.513
285.148
285.841
286.426
285.195
283.741
282.888
281.888
285.198
284.822
284.062
283.18
286.113
287.339
285.34
286.602
286.744
284.679
285.07
286.97
286.869
288.039
288.872
286.814
286.045
287.941
286.666
286.999
288.423
286.737
287.086
285.799
284.93
284.243
288.236
288.659
286.3
285.436
288.964
288.312
289.473
287.796
288.184
288.204
287.173
288.886
289.45
290.153
291.29
288.843
288.038
290.216
288.862
289.499
290.489
289.552
288.583
288.903
287.481
286.236
289.502
290.191
290.655
290.857
289.758
289.622
289.355
287.95
290.28
291.384
289.894
289.585
288.741
291.065
292.645
291.93
293.227
291.823
291.82
292.491
290.763
290.585
292.523
291.052
291.564
292.53
292.274
291.354
292.275
290.472
289.472
288.994
291.522
290.755
291.069
290
292.132
293.2
293.066
293.871
293.911
292.312
291.075
293.739
294.401
294.813
293.16
294.463
293.432
292.661
295.244
293.067
293.542
294.706
294.785
294.592
293.24
293.728
292.718
292.372
292.164
290.491
295.064
293.743
292.627
292.288
294.499
295.382
295.219
296.023
295.643
295.344
293.463
296.758
295.539
296.494
294.694
295.949
294.742
296.554
295.712
295.938
296.788
296.4
295.68
296.395
295.828
295.015
294.686
294.661
293.74
293.237
296.467
295.511
294.458
296.803
297.305
297.988
297.507
298.968
297.021
296.588
295.317
298.197
297.267
298.533
297.794
297.768
296.253
298.265
297.27
297.757
297.219
297.835
297.365
298.016
297.259
296.641
295.912
295.106
298.487
297.995
297.103
296.124
298.86
299.234
299.24
298.697
299.55
299.716
301.324
298.382
296.964
299.464
299.017
299.018
298.259
299.695
298.789
301.389
300.846
299.13
299.35
298.526
297.53
296.701
300.695
300.052
299.259
298.846
297.746
300.737
301.929
301.96
301.04
300.999
302.201
303.138
299.526
298.839
300.464
299.933
302.474
302.334
300.752
303.344
302.269
301.001
302.294
301.45
301.049
300.195
300.795
299.98
298.708
302.875
300.109
301.373
300.345
302.62
303.621
303.833
303.158
302.658
304.077
303.38
304.433
304.69
303.22
301.208
303.812
302.692
302.376
304.064
304.309
303.301
303.449
304.555
304.112
304.026
303.118
303.154
302.602
301.998
300.892
304.336
303.978
301.943
305.65
304.718
304.621
304.98
305.186
304.965
306.209
305.542
306.374
306.718
304.312
303.34
305.218
304.542
306.904
305.124
306.337
305.796
304.877
304.345
303.561
302.708
305.389
305.246
304.336
306.692
307.2
306.733
307.086
306.457
307.619
308.365
306.364
306.831
307.424
307.168
308.041
307.756
306.713
305.521
308.134
306.782
308.601
308.002
308.402
308.254
307.371
307.048
306.405
304.672
309.323
308.934
308.026
308.036
307.443
306.297
309.605
310.761
309.928
309.143
308.143
308.159
309.151
309.723
308.195
308.818
308.725
307.366
309.609
308.564
310.28
309.485
310.37
311.036
311.295
311.823
313.063
311.326
310.621
309.368
309.106
307.792
306.803
310.229
309.278
309.134
307.831
310.68
310.602
311.495
310.648
310.059
309.636
309.283
311.337
310.072
312.07
310.936
314.113
312.745
314.728
316.127
313.078
313.858
313.395
312.407
312.384
313.387
313.819
312.732
311.412
310.678
309.519
308.428
311.024
310.526
309.692
311.71
313.619
314.511
313.005
312.848
311.301
311.236
311.844
314.931
319.727
314.689
313.869
315.295
316.096
316.713
316.007
318.059
317.154
316.23
314.895
314.47
315.719
314.249
313.907
314.452
313.284
312.772
311.999
311.01
312.565
312.181
316.334
315.136
315.039
313.709
314.429
313.096
317.434
317.973
320.112
321.408
320.044
321.52
323.15
319.196
319.353
315.787
319.716
317.577
316.404
318.635
317.213
317.336
317.757
317.293
318.751
316.644
316.099
315.995
315.593
314.698
315.07
313.868
313.824
313.193
315.397
313.929
316.705
316.528
315.608
318.397
318.486
319.41
320.314
323.15
321.475
321.891
320.96
323.15
321.196
320.692
320.304
322.011
319.4
320.315
319.135
321.762
323.15
323.15
322.377
321.85
323.15
320.33
317.087
319.214
317.788
317.773
319.29
317.914
318.972
318.627
318.302
319.734
317.879
316.998
317.113
315.502
314.957
316.222
317.507
319.4
320.692
320.063
321.296
323.15
323.15
321.484
323.15
321.649
320.803
322.01
320.051
323.15
322.132
323.15
323.15
320.766
318.533
320.183
318.998
319.37
319.449
318.468
318.138
317.485
318.386
320.712
321.936
321.649
323.15
323.15
321.855
321.854
323.15
323.15
321.568
320.294
319.947
319.42
321.738
323.15
321.893
323.15
323.15
321.243
323.15
